30
 energy: -58.897739914804 gnorm: 0.000441365703 xtb: 6.7.0 (08769fc)
C           -1.14948191060988        0.37837890795463       -0.25354898407114
C           -1.15032694278838       -1.00767470338587       -0.13751468493264
C            0.07153053240689       -1.67128417739143       -0.10918640057661
C            1.27193581518933       -0.97001168803475       -0.20868751245136
C            1.25261179976514        0.42242386429581       -0.30497451921101
C            0.04167792382621        1.10273047848187       -0.31827210303238
H           -2.07636809113668       -1.55791844708588       -0.07112733748408
H            2.21740676261091       -1.50228329540534       -0.19796911183983
H            0.00715945601208        2.18020800196341       -0.39142922805677
N            2.49398952306225        1.06887527333051       -0.37339254144306
C            2.73290831171995        2.41015624237020       -0.55028007493529
H            3.29914783180640        0.46144511560482       -0.37280264438131
O            1.89911322803303        3.27829629704105       -0.66731896541465
N            4.08692153842809        2.67682497372410       -0.62250424187216
H            4.70949933424921        2.06278382556133       -0.12740845336547
N            0.14137624843211       -3.07002627239697       -0.01365139599427
C           -0.74200201206615       -3.83883426238849        0.71842271693378
H            1.05189258746415       -3.47430942031662       -0.17485157672857
O           -1.72861805385386       -3.43648560206638        1.28301842233882
N           -0.33651737434142       -5.15864875001857        0.77030234526982
H            0.19111734007829       -5.50346762694894       -0.01314479391627
N           -2.33887945763189        1.11762520276365       -0.27846071509707
C           -3.53592589579799        0.66494447845120       -0.79626702598189
H           -2.22224617100903        2.11980881663974       -0.24141483629281
O           -3.75772809777787       -0.45215801234944       -1.19513264794753
N           -4.47506694532162        1.67465593193007       -0.84667180541941
H           -4.39401107104259        2.41402677126946       -0.17055498367226
H           -1.06849507339504       -5.76990272145788        1.09508045300397
H           -5.40805964845268        1.32851413791105       -1.00065331707376
H            4.29043851214156        3.65930665995387       -0.53560403635497
